 VARIABLES  =  "X"  "temp"  "u"  "rho"  "X_H2" "X_O2" "X_H2O" "X_H" "X_O" "X_OH" "X_HO2" "X_H2O2" "X_N2"
 ZONE  I=438  FORMAT=POINT  SPECFORMAT=MOLE
 0.108333333	3073.459787	8415.189584	5.89083E-05	0.14924746	0.049646383	0.579259181	0.075601191	0.031985859	0.114216933	4.03301E-05	2.6635E-06
 0.183333333	3073.459787	8415.189584	5.89083E-05	0.14924746	0.049646383	0.579259181	0.075601191	0.031985859	0.114216933	4.03301E-05	2.6635E-06
 0.258333333	3073.434405	8415.139193	5.89087E-05	0.149248093	0.049647016	0.579255853	0.075603049	0.031986477	0.114216521	4.03281E-05	2.66364E-06
 0.295833333	3073.32914	8414.931137	5.89101E-05	0.149250764	0.049649631	0.579241963	0.075610797	0.031989045	0.114214815	4.03197E-05	2.66421E-06
 0.314583333	3072.859858	8414.000668	5.89166E-05	0.149262515	0.049661321	0.579180331	0.075645221	0.032000473	0.11420719	4.02822E-05	2.66678E-06
 0.328645833	3070.767858	8409.851265	5.89457E-05	0.149314716	0.049713406	0.578905819	0.075798774	0.032051429	0.114173063	4.01154E-05	2.67824E-06
 0.3375		3061.466278	8391.377436	5.90755E-05	0.149543508	0.049944361	0.577689458	0.076483668	0.032278196	0.114018695	3.9384E-05	2.73001E-06
 0.345833333	3041.235816	8350.767914	5.93628E-05	0.150007907	0.050447162	0.575095741	0.077972452	0.032769765	0.113666271	3.78542E-05	2.84706E-06
 0.35		3015.389079	8297.831887	5.97415E-05	0.150527379	0.051094137	0.571904344	0.079862537	0.033391806	0.113180769	3.60232E-05	3.00589E-06
 0.352083333	2993.319109	8251.845516	6.00744E-05	0.150916062	0.05165046	0.569272642	0.081470471	0.033918017	0.112734629	3.45674E-05	3.15026E-06
 0.353125	2963.427941	8189.209173	6.05339E-05	0.151402564	0.052399534	0.565767978	0.083675375	0.034629747	0.112088701	3.27427E-05	3.35976E-06
 0.354166667	2943.823996	8147.688944	6.08424E-05	0.151687884	0.052893202	0.563525151	0.085128019	0.035093694	0.111636902	3.16407E-05	3.50639E-06
 0.355208333	2920.909693	8098.969755	6.12084E-05	0.151999667	0.053468291	0.56093705	0.086844085	0.0356348	0.111081975	3.04436E-05	3.68773E-06
 0.355729167	2894.317954	8042.217508	6.16403E-05	0.152334335	0.05413363	0.557972932	0.088862727	0.036261407	0.110401881	2.91758E-05	3.91252E-06
 0.35625		2863.585977	7976.32575	6.21495E-05	0.152684236	0.054900846	0.554600479	0.091231896	0.036983091	0.109567389	2.78707E-05	4.19299E-06
 0.356770833	2828.166069	7899.946636	6.27504E-05	0.153036612	0.055783666	0.550786781	0.094010012	0.037810164	0.108541646	2.65735E-05	4.54622E-06
 0.357291667	2808.098509	7856.334074	6.30987E-05	0.153207307	0.056287542	0.548670537	0.09560072	0.038275093	0.107928102	2.59375E-05	4.76167E-06
 0.3578125	2786.428018	7809.016386	6.34811E-05	0.153370439	0.056832261	0.546419537	0.097333723	0.038773725	0.10723998	2.53274E-05	5.00771E-06
 0.358072917	2763.077399	7757.801358	6.39001E-05	0.153522588	0.057420059	0.544030067	0.099221084	0.039307233	0.106468923	2.47573E-05	5.28935E-06
 0.358333333	2737.933443	7702.391909	6.43598E-05	0.153659189	0.058054437	0.541497614	0.101277326	0.039877092	0.105604487	2.4242E-05	5.61309E-06
 0.35859375	2710.851053	7642.399907	6.48651E-05	0.153774337	0.058739958	0.538817152	0.10351992	0.040484978	0.10463387	2.37981E-05	5.98724E-06
 0.358723958	2681.651732	7577.343061	6.5422E-05	0.153860575	0.059482301	0.535983055	0.105969915	0.041132726	0.103541562	2.34445E-05	6.42248E-06
 0.358854167	2650.117887	7506.62937	6.60383E-05	0.153908566	0.060288468	0.532988867	0.108652814	0.041822283	0.102308866	2.32028E-05	6.93273E-06
 0.358919271	2615.982483	7429.528929	6.67236E-05	0.153906782	0.061167067	0.529826448	0.111599643	0.042555515	0.10091391	2.3097E-05	7.53633E-06
 0.358984375	2597.67937	7387.900691	6.70995E-05	0.153881193	0.061644563	0.528166368	0.113197061	0.042942266	0.100137559	2.31069E-05	7.88342E-06
 0.359049479	2578.518804	7344.10308	6.74997E-05	0.153836599	0.062147874	0.526457859	0.114880103	0.043341303	0.099304832	2.31645E-05	8.26545E-06
 0.359114583	2558.456207	7298.013338	6.7926E-05	0.153770806	0.062679182	0.524699556	0.116655354	0.043752501	0.098410639	2.32753E-05	8.68693E-06
 0.359179687	2537.435027	7249.47299	6.83808E-05	0.153681592	0.063241482	0.522889305	0.118530206	0.044175668	0.097449149	2.34454E-05	9.15325E-06
 0.359244792	2515.386901	7198.287693	6.8867E-05	0.153566728	0.06383879	0.521024254	0.120513024	0.044610407	0.096413444	2.36818E-05	9.67084E-06
 0.359309896	2492.23096	7144.224629	6.93882E-05	0.153424186	0.064476492	0.519100584	0.122613262	0.045055977	0.09529526	2.39923E-05	1.02473E-05
 0.359375	2467.872444	7087.007555	6.99484E-05	0.153252541	0.065161907	0.51711295	0.124841533	0.045511103	0.094084687	2.43862E-05	1.08918E-05
 0.359440104	2442.200602	7026.309296	7.05526E-05	0.153051699	0.065905172	0.515053526	0.127209615	0.04597371	0.092769789	2.48746E-05	1.16151E-05
 0.359505208	2415.08566	6961.74107	7.1207E-05	0.152824147	0.06672057	0.512910368	0.129730287	0.046440527	0.0913362	2.54707E-05	1.24301E-05
 0.359570312	2386.374362	6892.837445	7.19188E-05	0.15257714	0.067628513	0.510664534	0.132416836	0.046906536	0.0897669	2.61898E-05	1.33513E-05
 0.359602865	2371.300588	6856.404655	7.2301E-05	0.152452102	0.068135294	0.509484827	0.133833322	0.047136933	0.088917056	2.66068E-05	1.38591E-05
 0.359635417	2355.724373	6818.559751	7.27023E-05	0.152329623	0.068681766	0.508264533	0.135297544	0.047363496	0.088021573	2.70651E-05	1.44012E-05
 0.359667969	2339.61996	6779.218258	7.31242E-05	0.152214404	0.069274875	0.506996605	0.136810844	0.047584353	0.08707637	2.75689E-05	1.49803E-05
 0.359700521	2322.957776	6738.282209	7.35684E-05	0.152112837	0.069923252	0.505671784	0.138374192	0.047797242	0.086076972	2.81225E-05	1.55985E-05
 0.359733073	2314.395348	6717.144694	7.37999E-05	0.152070543	0.070274685	0.504981104	0.13917657	0.047899695	0.085553057	2.84218E-05	1.59238E-05
 0.359765625	2305.674257	6695.541401	7.4038E-05	0.152035315	0.070645438	0.50427069	0.139991809	0.047998913	0.085012838	2.87368E-05	1.62605E-05
 0.359798177	2287.763845	6650.959755	7.45343E-05	0.151990072	0.071444101	0.502790619	0.141656894	0.048186359	0.083885574	2.94123E-05	1.69671E-05
 0.359830729	2269.186457	6604.413696	7.50596E-05	0.151993207	0.07233818	0.501207703	0.14337097	0.048355693	0.082686367	3.01587E-05	1.77212E-05
 0.359863281	2249.892614	6555.731408	7.5617E-05	0.152064123	0.073348243	0.499496751	0.145131273	0.048502176	0.081407925	3.09853E-05	1.85244E-05
 0.359895833	2239.943491	6530.470109	7.59095E-05	0.15213549	0.073911382	0.498576187	0.146029221	0.048564424	0.080732915	3.1436E-05	1.89459E-05
 0.359928385	2229.785262	6504.564033	7.62118E-05	0.152234677	0.074516162	0.497608751	0.146936936	0.048618378	0.080033802	3.19128E-05	1.93806E-05
 0.359960937	2219.410221	6477.985993	7.65245E-05	0.152366148	0.075166799	0.496588988	0.147853411	0.048663123	0.079309284	3.24179E-05	1.98286E-05
 0.35999349	2208.810047	6450.706463	7.68481E-05	0.152534971	0.075868001	0.495510709	0.148777418	0.048697662	0.078557996	3.29536E-05	2.02901E-05
 0.360026042	2197.975761	6422.693489	7.71833E-05	0.152746886	0.076625003	0.494366921	0.149707477	0.048720915	0.07777851	3.35226E-05	2.07651E-05
 0.360058594	2186.897689	6393.912598	7.75307E-05	0.153008381	0.077443612	0.49314975	0.150641824	0.04873172	0.076969331	3.41278E-05	2.12533E-05
 0.360091146	2175.565407	6364.326681	7.78911E-05	0.153326774	0.078330246	0.491850352	0.151578371	0.048728831	0.076128899	3.47725E-05	2.17545E-05
 0.360123698	2163.967688	6333.895864	7.82654E-05	0.153710298	0.079291978	0.490458816	0.152514663	0.048710915	0.075255601	3.54602E-05	2.22683E-05
 0.36015625	2152.092442	6302.577374	7.86543E-05	0.154168197	0.080336589	0.488964067	0.153447831	0.048676558	0.074347768	3.6195E-05	2.2794E-05
 0.360188802	2139.926648	6270.325391	7.90588E-05	0.154710825	0.081472606	0.487353759	0.154374537	0.048624262	0.073403699	3.69811E-05	2.33305E-05
 0.360221354	2133.726876	6253.81783	7.92675E-05	0.155019192	0.082080995	0.486497296	0.154834676	0.04859055	0.072916291	3.73966E-05	2.36029E-05
 0.360253906	2127.447253	6237.048319	7.94807E-05	0.155353589	0.082716896	0.485605625	0.155291677	0.048551608	0.0724189	3.78275E-05	2.38776E-05
 0.360286458	2121.085913	6220.0105	7.96984E-05	0.155715697	0.083381613	0.484676792	0.155744964	0.048507217	0.071911289	3.82744E-05	2.41545E-05
 0.36031901	2114.640918	6202.697746	7.99208E-05	0.156107288	0.084076515	0.483708734	0.156193919	0.04845715	0.071393222	3.87381E-05	2.44334E-05
 0.360351562	2108.11025	6185.103157	8.01482E-05	0.156530232	0.084803039	0.48269928	0.156637881	0.048401174	0.07086446	3.92195E-05	2.47141E-05
 0.360384115	2101.491817	6167.219564	8.03806E-05	0.156986494	0.085562684	0.481646146	0.157076147	0.048339048	0.070324766	3.97195E-05	2.49964E-05
 0.360416667	2094.783445	6149.039527	8.06182E-05	0.157478144	0.086357018	0.480546931	0.157507963	0.048270523	0.069773902	4.02389E-05	2.528E-05
 0.360449219	2087.982881	6130.555338	8.08613E-05	0.158007356	0.087187674	0.47939912	0.157932529	0.048195346	0.069211632	4.07788E-05	2.55647E-05
 0.360481771	2081.087789	6111.759016	8.111E-05	0.158576411	0.088056353	0.478200076	0.158348993	0.048113253	0.068637723	4.13401E-05	2.585E-05
 0.360514323	2074.095748	6092.642315	8.13645E-05	0.159187699	0.088964822	0.476947044	0.158756452	0.048023979	0.068051944	4.19241E-05	2.61356E-05
 0.360546875	2067.004253	6073.196717	8.1625E-05	0.159843724	0.089914914	0.475637146	0.159153945	0.047927249	0.067454069	4.25318E-05	2.64213E-05
 0.360579427	2059.810712	6053.413437	8.18918E-05	0.160547105	0.090908529	0.47426738	0.159540455	0.047822784	0.066843876	4.31645E-05	2.67064E-05
 0.360611979	2052.512446	6033.283424	8.2165E-05	0.161300575	0.091947633	0.472834625	0.159914908	0.047710296	0.06622115	4.38234E-05	2.69906E-05
 0.360644531	2045.106688	6012.797362	8.24449E-05	0.162106987	0.093034253	0.471335632	0.160276166	0.047589496	0.065585682	4.45098E-05	2.72734E-05
 0.360677083	2037.590584	5991.945676	8.27318E-05	0.162969309	0.094170484	0.469767037	0.160623032	0.047460086	0.064937274	4.52252E-05	2.75542E-05
 0.360709635	2029.961192	5970.71853	8.3026E-05	0.16389063	0.095358476	0.46812535	0.160954241	0.047321763	0.064275735	4.59711E-05	2.78324E-05
 0.360742187	2022.215482	5949.105838	8.33276E-05	0.164874156	0.096600443	0.466406969	0.161268467	0.04717422	0.063600889	4.67489E-05	2.81075E-05
 0.36077474	2014.350338	5927.09727	8.3637E-05	0.165923209	0.097898649	0.464608176	0.161564314	0.047017143	0.06291257	4.75604E-05	2.83786E-05
 0.360807292	2006.362561	5904.682255	8.39545E-05	0.167041228	0.099255415	0.462725145	0.16184032	0.046850214	0.062210627	4.84071E-05	2.86451E-05
 0.360839844	1998.248867	5881.849996	8.42804E-05	0.168231761	0.100673104	0.460753948	0.162094953	0.04667311	0.061494926	4.92909E-05	2.89062E-05
 0.360872396	1990.005895	5858.589484	8.4615E-05	0.169498467	0.102154127	0.458690563	0.162326614	0.046485504	0.060765349	5.02137E-05	2.9161E-05
 0.360904948	1981.630205	5834.889503	8.49587E-05	0.170845108	0.103700929	0.456530879	0.162533634	0.046287064	0.0600218	5.11773E-05	2.94086E-05
 0.3609375	1973.11829	5810.738659	8.53118E-05	0.172275541	0.105315984	0.45427071	0.162714277	0.046077453	0.059264203	5.21837E-05	2.96482E-05
 0.360970052	1964.466571	5786.125388	8.56747E-05	0.173793716	0.107001792	0.451905807	0.162866737	0.045856331	0.058492504	5.3235E-05	2.98785E-05
 0.361002604	1955.671415	5761.037989	8.60478E-05	0.175403665	0.108760863	0.449431868	0.162989143	0.045623354	0.057706675	5.43334E-05	3.00986E-05
 0.361035156	1946.72913	5735.464644	8.64315E-05	0.177109491	0.110595715	0.446844557	0.163079559	0.045378174	0.056906715	5.54812E-05	3.03073E-05
 0.361067708	1937.635985	5709.393448	8.68262E-05	0.178915356	0.112508859	0.44413952	0.163135987	0.045120442	0.056092652	5.66805E-05	3.05035E-05
 0.36110026	1928.388211	5682.812449	8.72323E-05	0.180825473	0.114502787	0.441312404	0.163156368	0.044849804	0.055264544	5.79339E-05	3.06858E-05
 0.361132812	1918.982014	5655.70968	8.76503E-05	0.182844086	0.116579962	0.438358879	0.163138588	0.044565908	0.054422481	5.92436E-05	3.08529E-05
 0.361165365	1909.413589	5628.073206	8.80807E-05	0.184975455	0.118742799	0.435274662	0.163080482	0.044268396	0.05356659	6.06124E-05	3.10035E-05
 0.361197917	1899.679131	5599.891173	8.8524E-05	0.187223841	0.120993656	0.432055542	0.162979838	0.043956914	0.05269703	6.20425E-05	3.11362E-05
 0.361230469	1889.774852	5571.151861	8.89806E-05	0.189593483	0.123334812	0.428697405	0.162834404	0.043631106	0.051814003	6.35366E-05	3.12495E-05
 0.361263021	1884.756836	5556.562019	8.92143E-05	0.190827451	0.124542949	0.426961018	0.162743848	0.043462357	0.051366768	6.43104E-05	3.12983E-05
 0.361295573	1879.694367	5541.824926	8.94515E-05	0.19209357	0.125775018	0.425187757	0.162641163	0.043289836	0.050916212	6.51015E-05	3.13415E-05
 0.361328125	1874.586995	5526.9393	8.96924E-05	0.193392361	0.127031265	0.423377161	0.162526058	0.043113496	0.05046237	6.59104E-05	3.13791E-05
 0.361360677	1869.434274	5511.903876	8.99371E-05	0.194724333	0.128311926	0.421528783	0.162398239	0.042933293	0.050005278	6.67373E-05	3.14108E-05
 0.361393229	1864.23576	5496.717404	9.01856E-05	0.196089994	0.129617229	0.419642185	0.162257414	0.042749183	0.049544975	6.75826E-05	3.14365E-05
 0.361425781	1858.991019	5481.378656	9.0438E-05	0.197489842	0.130947395	0.417716947	0.162103289	0.042561119	0.049081505	6.84467E-05	3.1456E-05
 0.361458333	1853.69962	5465.886428	9.06943E-05	0.198924368	0.132302632	0.415752661	0.161935569	0.042369058	0.048614911	6.933E-05	3.14691E-05
 0.361490885	1848.361139	5450.239544	9.09547E-05	0.200394053	0.133683141	0.413748938	0.161753961	0.042172955	0.048145243	7.02328E-05	3.14756E-05
 0.361523437	1842.975161	5434.436855	9.12191E-05	0.201899369	0.135089108	0.411705403	0.161558171	0.041972766	0.047672552	7.11555E-05	3.14754E-05
 0.361539714	1837.54128	5418.477249	9.14878E-05	0.203440775	0.136520708	0.409621705	0.161347907	0.041768447	0.047196891	7.20985E-05	3.14683E-05
 0.36155599	1832.059097	5402.35965	9.17608E-05	0.205018721	0.137978105	0.40749751	0.161122877	0.041559954	0.046718317	7.30621E-05	3.14541E-05
 0.361572266	1826.528226	5386.083023	9.20381E-05	0.206633641	0.139461445	0.405332506	0.160882791	0.041347246	0.046236892	7.40467E-05	3.14326E-05
 0.361588542	1820.948288	5369.646378	9.23198E-05	0.208285956	0.140970862	0.403126407	0.160627361	0.04113028	0.045752677	7.50528E-05	3.14037E-05
 0.361604818	1815.318921	5353.048771	9.2606E-05	0.209976074	0.142506474	0.400878947	0.160356303	0.040909015	0.04526574	7.60806E-05	3.13672E-05
 0.361621094	1809.639771	5336.289313	9.28969E-05	0.211704384	0.14406838	0.398589889	0.160069334	0.04068341	0.044776149	7.71306E-05	3.1323E-05
 0.36163737	1803.910499	5319.367169	9.31924E-05	0.21347126	0.145656663	0.396259024	0.159766174	0.040453428	0.044283977	7.82031E-05	3.12709E-05
 0.361653646	1798.130782	5302.281564	9.34927E-05	0.215277055	0.147271388	0.393886169	0.159446549	0.040219029	0.043789301	7.92985E-05	3.12107E-05
 0.361669922	1792.300312	5285.031788	9.37979E-05	0.217122106	0.148912599	0.391471173	0.159110188	0.039980177	0.043292198	8.04173E-05	3.11425E-05
 0.361686198	1786.418794	5267.617199	9.4108E-05	0.219006727	0.150580321	0.389013915	0.158756824	0.039736836	0.042792751	8.15597E-05	3.1066E-05
 0.361702474	1780.485955	5250.037225	9.44231E-05	0.220931212	0.152274556	0.386514309	0.158386198	0.039488973	0.042291045	8.27261E-05	3.09811E-05
 0.36171875	1774.501536	5232.291374	9.47433E-05	0.222895832	0.153995285	0.383972301	0.157998053	0.039236555	0.041787169	8.39169E-05	3.08877E-05
 0.361735026	1768.465301	5214.379233	9.50688E-05	0.224900834	0.155742465	0.381387874	0.157592142	0.038979551	0.041281215	8.51325E-05	3.07859E-05
 0.361751302	1762.37703	5196.300473	9.53995E-05	0.226946441	0.15751603	0.378761048	0.157168222	0.038717935	0.040773276	8.63733E-05	3.06754E-05
 0.361767578	1756.236526	5178.054856	9.57357E-05	0.229032848	0.159315886	0.376091879	0.15672606	0.038451679	0.040263453	8.76396E-05	3.05562E-05
 0.361783854	1750.043615	5159.642239	9.60773E-05	0.231160227	0.161141915	0.373380466	0.156265428	0.038180758	0.039751846	8.89317E-05	3.04284E-05
 0.36180013	1743.798144	5141.062574	9.64246E-05	0.233328719	0.162993973	0.370626944	0.155786109	0.037905152	0.03923856	9.02501E-05	3.02918E-05
 0.361816406	1737.499985	5122.315919	9.67774E-05	0.235538437	0.164871886	0.367831495	0.155287895	0.037624842	0.038723704	9.15951E-05	3.01465E-05
 0.361832682	1731.149033	5103.402437	9.71361E-05	0.237789464	0.166775451	0.364994341	0.154770585	0.03733981	0.038207388	9.29669E-05	2.99925E-05
 0.361848958	1724.745209	5084.322403	9.75006E-05	0.240081853	0.168704438	0.362115749	0.154233991	0.037050044	0.037689728	9.4366E-05	2.98297E-05
 0.361865234	1718.288463	5065.076207	9.78711E-05	0.242415624	0.170658583	0.35919603	0.153677935	0.036755534	0.037170842	9.57927E-05	2.96584E-05
 0.36188151	1711.77877	5045.664361	9.82477E-05	0.244790765	0.172637594	0.356235542	0.153102249	0.036456273	0.036650852	9.72473E-05	2.94784E-05
 0.361897786	1705.216133	5026.0875	9.86303E-05	0.24720723	0.174641143	0.353234691	0.152506779	0.036152256	0.036129881	9.87302E-05	2.929E-05
 0.361914062	1698.600585	5006.346385	9.90193E-05	0.249664938	0.176668873	0.350193931	0.151891381	0.035843485	0.035608057	0.000100242	2.90932E-05
 0.361930339	1691.932188	4986.441913	9.94145E-05	0.252163776	0.17872039	0.347113761	0.151255925	0.035529964	0.035085513	0.000101782	2.88882E-05
 0.361946615	1685.211036	4966.375113	9.98162E-05	0.254703591	0.180795268	0.343994735	0.150600296	0.035211701	0.034562383	0.000103351	2.86751E-05
 0.361962891	1678.437252	4946.147156	0.000100224	0.257284196	0.182893045	0.340837453	0.14992439	0.034888707	0.034038804	0.00010495	2.8454E-05
 0.361979167	1671.610994	4925.759355	0.000100639	0.259905366	0.185013223	0.337642568	0.149228121	0.034561002	0.033514917	0.000106578	2.82253E-05
 0.361995443	1664.732449	4905.213169	0.000101061	0.262566839	0.187155268	0.334410781	0.148511415	0.034228605	0.032990866	0.000108237	2.79891E-05
 0.362011719	1657.80184	4884.510208	0.000101489	0.265268313	0.18931861	0.331142847	0.147774215	0.033891544	0.032466799	0.000109926	2.77457E-05
 0.362027995	1650.819423	4863.65223	0.000101924	0.268009451	0.191502642	0.327839572	0.14701648	0.03354985	0.031942865	0.000111645	2.74953E-05
 0.362044271	1643.785488	4842.64115	0.000102367	0.270789873	0.193706718	0.324501813	0.146238184	0.033203559	0.031419219	0.000113395	2.72383E-05
 0.362060547	1636.70036	4821.479039	0.000102816	0.273609162	0.195930155	0.321130479	0.145439321	0.032852715	0.030896017	0.000115176	2.69749E-05
 0.362076823	1629.564399	4800.168126	0.000103272	0.276466862	0.198172233	0.31772653	0.144619899	0.032497364	0.030373418	0.000116988	2.67056E-05
 0.362093099	1622.378	4778.7108	0.000103736	0.279362477	0.200432192	0.314290977	0.143779946	0.032137561	0.029851585	0.000118831	2.64306E-05
 0.362109375	1615.141594	4757.10961	0.000104207	0.282295469	0.202709236	0.310824884	0.142919507	0.031773364	0.029330682	0.000120707	2.61505E-05
 0.362125651	1607.855648	4735.367267	0.000104686	0.285265266	0.205002529	0.307329362	0.142038646	0.031404841	0.028810877	0.000122614	2.58657E-05
 0.362141927	1600.520665	4713.486642	0.000105172	0.288271251	0.207311197	0.303805575	0.141137445	0.031032062	0.028292341	0.000124553	2.55765E-05
 0.362158203	1593.137183	4691.470769	0.000105665	0.291312771	0.20963433	0.300254733	0.140216005	0.030655106	0.027775248	0.000126524	2.52836E-05
 0.362174479	1585.705777	4669.322842	0.000106166	0.294389134	0.211970977	0.296678097	0.139274447	0.030274058	0.027259771	0.000128528	2.49873E-05
 0.362190755	1578.227058	4647.046213	0.000106675	0.29749961	0.214320154	0.293076972	0.138312911	0.02988901	0.02674609	0.000130564	2.46883E-05
 0.362207031	1570.701671	4624.644392	0.000107192	0.300643429	0.216680837	0.289452712	0.137331558	0.02950006	0.026234384	0.000132633	2.43872E-05
 0.362223307	1563.130297	4602.121044	0.000107717	0.303819787	0.219051968	0.285806712	0.136330565	0.029107313	0.025724835	0.000134735	2.40844E-05
 0.362239583	1555.513653	4579.479985	0.000108249	0.307027841	0.221432453	0.282140413	0.135310133	0.028710882	0.025217627	0.000136871	2.37807E-05
 0.362255859	1547.852489	4556.725183	0.00010879	0.310266712	0.223821164	0.278455294	0.134270481	0.028310886	0.024712946	0.000139039	2.34767E-05
 0.362272135	1540.147588	4533.860744	0.000109338	0.31353549	0.226216938	0.274752878	0.133211848	0.027907452	0.024210979	0.000141241	2.3173E-05
 0.362288411	1532.399769	4510.890919	0.000109895	0.316833225	0.228618583	0.271034722	0.132134493	0.027500712	0.023711916	0.000143478	2.28705E-05
 0.362304687	1524.60988	4487.820091	0.00011046	0.320158941	0.231024874	0.26730242	0.131038696	0.027090808	0.023215944	0.000145748	2.25698E-05
 0.36233724	1516.778802	4464.65277	0.000111033	0.323511625	0.233434555	0.263557599	0.129924753	0.026677887	0.022723256	0.000148053	2.22717E-05
 0.362369792	1508.907447	4441.393587	0.000111615	0.326890236	0.235846344	0.259801917	0.128792985	0.026262105	0.022234044	0.000150392	2.1977E-05
 0.362402344	1500.996754	4418.047289	0.000112204	0.330293704	0.238258932	0.256037063	0.127643728	0.025843622	0.021748497	0.000152767	2.16866E-05
 0.362434896	1485.061702	4371.125925	0.000113409	0.337151526	0.243064904	0.248510391	0.125300655	0.025001919	0.020791879	0.000157603	2.11225E-05
 0.362467448	1468.983205	4323.911408	0.000114647	0.344094695	0.247859882	0.240966298	0.122892634	0.024151561	0.019851766	0.00016258	2.0585E-05
 0.3625		1452.769314	4276.44379	0.00011592	0.35111387	0.252632789	0.23341878	0.120422987	0.023294073	0.018929722	0.000167696	2.00812E-05
 0.362532552	1436.428457	4228.764099	0.000117227	0.358199401	0.257372337	0.225882032	0.117895311	0.022431074	0.018027272	0.000172953	1.96193E-05
 0.362565104	1428.213134	4204.854225	0.000117893	0.361774568	0.259734122	0.222109924	0.11660716	0.021996622	0.017582552	0.000175645	1.94069E-05
 0.362597656	1419.968965	4180.909631	0.000118569	0.365362655	0.262082353	0.218346632	0.115305869	0.02156147	0.01714344	0.000178373	1.92086E-05
 0.362630208	1411.697138	4156.935619	0.000119252	0.368962379	0.264415589	0.214593958	0.113991963	0.021125843	0.016710104	0.000181138	1.90257E-05
 0.36266276	1403.39885	4132.937478	0.000119945	0.372572449	0.266732396	0.210853698	0.112665977	0.020689971	0.016282709	0.000183941	1.88593E-05
 0.362695312	1395.075305	4108.920469	0.000120646	0.376191565	0.269031339	0.207127636	0.111328461	0.020254089	0.015861418	0.000186781	1.87107E-05
 0.362727865	1386.727708	4084.889811	0.000121356	0.379818425	0.271310995	0.203417537	0.109979976	0.019818435	0.015446389	0.000189661	1.85812E-05
 0.362760417	1378.357269	4060.850665	0.000122074	0.383451727	0.273569947	0.19972515	0.108621093	0.019383253	0.01503778	0.00019258	1.8472E-05
 0.362792969	1369.965193	4036.80812	0.000122801	0.387090164	0.275806795	0.1960522	0.107252392	0.018948786	0.01463574	0.000195538	1.83845E-05
 0.362825521	1361.552688	4012.767177	0.000123537	0.390732436	0.278020156	0.192400385	0.105874464	0.018515282	0.014240418	0.000198538	1.83201E-05
 0.362858073	1353.120951	3988.732737	0.000124281	0.394377244	0.280208667	0.188771375	0.104487906	0.018082992	0.013851956	0.00020158	1.82802E-05
 0.362890625	1344.671175	3964.709582	0.000125034	0.398023295	0.28237099	0.185166805	0.103093323	0.017652167	0.01347049	0.000204664	1.82662E-05
 0.362923177	1336.204544	3940.702363	0.000125796	0.401669305	0.284505814	0.181588274	0.101691327	0.017223059	0.01309615	0.000207791	1.82795E-05
 0.362955729	1327.722226	3916.715584	0.000126566	0.405313999	0.286611857	0.178037342	0.100282533	0.016795922	0.012729062	0.000210964	1.83218E-05
 0.362988281	1319.225378	3892.753588	0.000127346	0.408956113	0.288687874	0.174515526	0.098867562	0.016371007	0.012369343	0.000214181	1.83943E-05
 0.363020833	1310.715137	3868.820544	0.000128133	0.412594396	0.290732655	0.171024295	0.097447037	0.015948569	0.012017104	0.000217446	1.84989E-05
 0.363053385	1302.192622	3844.920431	0.00012893	0.416227614	0.292745031	0.167565072	0.096021583	0.015528857	0.011672448	0.000220758	1.86369E-05
 0.363085937	1293.658931	3821.057024	0.000129735	0.419854547	0.294723878	0.164139225	0.094591829	0.015112121	0.011335471	0.000224119	1.88099E-05
 0.36311849	1285.115134	3797.233884	0.000130549	0.423473994	0.296668115	0.160748069	0.0931584	0.014698609	0.011006261	0.000227531	1.90196E-05
 0.363151042	1276.562279	3773.454345	0.000131372	0.427084775	0.298576713	0.157392863	0.091721924	0.014288565	0.010684897	0.000230996	1.92676E-05
 0.363183594	1268.001379	3749.721499	0.000132203	0.43068573	0.300448694	0.154074803	0.090283024	0.013882229	0.010371451	0.000234514	1.95555E-05
 0.363216146	1259.433422	3726.038188	0.000133043	0.43427572	0.302283135	0.150795027	0.088842322	0.013479839	0.010065985	0.000238087	1.98849E-05
 0.363248698	1250.859357	3702.406993	0.000133893	0.437853633	0.304079168	0.147554607	0.087400437	0.013081628	0.009768552	0.000241717	2.02575E-05
 0.36328125	1242.2801	3678.830222	0.000134751	0.44141838	0.305835988	0.14435455	0.085957983	0.012687822	0.009479196	0.000245406	2.06749E-05
 0.363313802	1233.696527	3655.309905	0.000135618	0.444968897	0.307552848	0.141195795	0.084515567	0.012298644	0.009197954	0.000249157	2.11387E-05
 0.363346354	1225.109476	3631.847781	0.000136494	0.448504151	0.309229065	0.138079214	0.083073791	0.01191431	0.008924849	0.00025297	2.16505E-05
 0.363378906	1216.519741	3608.445295	0.000137379	0.452023132	0.31086402	0.135005608	0.081633251	0.011535029	0.008659899	0.000256848	2.2212E-05
 0.363411458	1207.928073	3585.103591	0.000138273	0.455524863	0.312457164	0.131975708	0.080194533	0.011161004	0.00840311	0.000260794	2.28247E-05
 0.36344401	1199.335177	3561.823503	0.000139177	0.459008394	0.31400801	0.128990172	0.078758216	0.010792429	0.00815448	0.000264809	2.34901E-05
 0.363476562	1190.741712	3538.605555	0.00014009	0.462472807	0.315516145	0.126049586	0.077324869	0.010429492	0.007913995	0.000268897	2.42098E-05
 0.363509115	1182.148286	3515.449956	0.000141013	0.465917214	0.316981221	0.123154467	0.07589505	0.01007237	0.007681634	0.000273059	2.49852E-05
 0.363541667	1173.555458	3492.356597	0.000141946	0.469340757	0.318402962	0.120305254	0.074469308	0.009721236	0.007457365	0.000277299	2.58178E-05
 0.363574219	1164.963734	3469.325052	0.000142888	0.472742613	0.319781162	0.117502319	0.073048181	0.009376249	0.007241148	0.00028162	2.67088E-05
 0.363606771	1156.373569	3446.354574	0.00014384	0.476121988	0.321115685	0.114745959	0.071632192	0.00903756	0.007032932	0.000286024	2.76595E-05
 0.363639323	1147.785365	3423.4441	0.000144803	0.479478121	0.322406466	0.112036401	0.070221856	0.008705313	0.006832656	0.000290515	2.86712E-05
 0.363671875	1139.199465	3400.592248	0.000145776	0.482810284	0.323653509	0.109373801	0.068817674	0.008379639	0.006640253	0.000295095	2.9745E-05
 0.363704427	1130.616161	3377.797326	0.00014676	0.486117781	0.324856886	0.106758245	0.067420131	0.008060661	0.006455645	0.000299769	3.08818E-05
 0.363736979	1122.035688	3355.05733	0.000147754	0.489399948	0.326016739	0.104189753	0.066029704	0.007748488	0.006278745	0.000304539	3.20827E-05
 0.363769531	1113.458224	3332.369954	0.00014876	0.492656155	0.327133277	0.101668277	0.064646852	0.007443224	0.006109458	0.000309409	3.33483E-05
 0.363802083	1104.883889	3309.732593	0.000149778	0.495885801	0.328206772	0.099193704	0.063272023	0.007144957	0.00594768	0.000314384	3.46795E-05
 0.363834635	1096.31275	3287.142351	0.000150807	0.49908832	0.329237563	0.096765858	0.061905649	0.006853767	0.005793299	0.000319466	3.60766E-05
 0.363867187	1087.744814	3264.596047	0.000151849	0.502263177	0.33022605	0.094384502	0.06054815	0.006569724	0.005646197	0.000324661	3.75402E-05
 0.36389974	1079.180033	3242.090228	0.000152903	0.505409867	0.331172694	0.092049341	0.05919993	0.006292883	0.005506244	0.000329971	3.90705E-05
 0.363932292	1070.618302	3219.621174	0.00015397	0.508527916	0.332078013	0.089760021	0.057861381	0.006023292	0.005373306	0.000335402	4.06675E-05
 0.363964844	1062.059464	3197.184915	0.00015505	0.511616883	0.332942583	0.087516137	0.056532879	0.005760987	0.005247242	0.000340958	4.23312E-05
 0.363997396	1053.503302	3174.777235	0.000156145	0.514676354	0.33376703	0.085317231	0.055214787	0.005505992	0.0051279	0.000346644	4.40612E-05
 0.364029948	1044.949551	3152.39369	0.000157253	0.517705947	0.334552034	0.083162796	0.053907455	0.00525832	0.005015126	0.000352465	4.58572E-05
 0.3640625	1036.397888	3130.029619	0.000158377	0.520705307	0.335298321	0.08105228	0.052611219	0.005017975	0.004908756	0.000358424	4.77184E-05
 0.364095052	1027.847943	3107.680156	0.000159516	0.523674107	0.336006662	0.078985087	0.051326401	0.004784949	0.004808621	0.000364529	4.96439E-05
 0.364127604	1019.299293	3085.34025	0.000160671	0.52661205	0.33667787	0.076960582	0.050053311	0.004559224	0.004714547	0.000370783	5.16327E-05
 0.364192708	1010.75147	3063.004673	0.000161843	0.529518863	0.337312798	0.074978093	0.048792246	0.004340771	0.004626353	0.000377193	5.36834E-05
 0.364257812	1002.203957	3040.668043	0.000163031	0.532394302	0.337912331	0.073036915	0.047543491	0.004129552	0.004543852	0.000383763	5.57944E-05
 0.364322917	993.6561931	3018.324831	0.000164238	0.535238147	0.338477389	0.07113631	0.046307319	0.003925518	0.004466852	0.000390501	5.7964E-05
 0.364388021	986.0574758	2998.455788	0.000165327	0.537740545	0.338951683	0.069479541	0.045218751	0.003750063	0.004402838	0.000396638	5.99411E-05
 0.364453125	978.4576462	2978.57352	0.00016643	0.540217671	0.339400006	0.067853819	0.044140526	0.003580212	0.004342888	0.000402918	6.19614E-05
 0.364518229	970.8562407	2958.673907	0.00016755	0.542669416	0.339823067	0.066258571	0.043072813	0.003415912	0.004286855	0.000409343	6.40229E-05
 0.364583333	963.2527763	2938.752794	0.000168685	0.545095687	0.340221588	0.064693211	0.042015777	0.003257104	0.004234591	0.000415919	6.61238E-05
 0.364648437	955.6467521	2918.805997	0.000169838	0.547496402	0.340596297	0.063157146	0.040969574	0.003103724	0.004185945	0.000422651	6.8262E-05